# vtk DataFile Version 3.0
vtk output
ASCII
DATASET POLYDATA
POINTS 96 float
-177.91824341 -662.01495361 -42.54403305
-40.54536819 -662.01483154 -179.91694641
-176.26081848 -767.99908447 -178.25947571
-177.91815186 624.87988281 -42.54411697
-40.54527283 624.87982178 -179.91703796
-176.26069641 730.86401367 -178.25956726
-40.54523468 -662.01483154 183.39787292
-177.91815186 -662.01495361 46.02502823
-176.26065063 -767.99914551 181.74049377
-40.54531097 624.88006592 183.39794922
-177.91827393 624.87994385 46.02509689
-176.26074219 730.86395264 181.74053955
185.39677429 -662.01458740 46.24150467
48.02384186 -662.01519775 183.61439514
183.73928833 -767.99908447 181.95689392
185.39666748 624.88006592 46.24161911
48.02379990 624.87963867 183.61454773
183.73921204 730.86401367 181.95709229
48.02377701 -662.01495361 -179.70045471
185.39669800 -662.01495361 -42.32760239
183.73916626 -767.99902344 -178.04306030
48.02383804 624.88000488 -179.70042419
185.39672852 624.87969971 -42.32758331
183.73928833 730.86401367 -178.04302979
-36.33035278 -1129.89929199 -175.70187378
-173.70323181 -1129.89941406 -38.32895279
-172.04579163 -1235.88366699 -174.04438782
-142.35076904 -662.01495361 -6.97656536
-4.97789812 -662.01483154 -144.34947205
-4.97780085 624.87982178 -144.34956360
-142.35067749 624.87988281 -6.97664738
-4.97777700 -662.01397705 147.83038330
-142.35069275 -662.01409912 10.45754242
-142.35081482 624.88079834 10.45760918
-4.97785330 624.88085938 147.83045959
234.03555298 -767.99847412 182.57115173
235.69303894 -662.01397705 46.85576630
235.69290161 624.88067627 46.85588074
234.03547668 730.86468506 182.57135010
-36.33018494 1092.76428223 -175.70199585
-172.04560852 1198.74853516 -174.04454041
-173.70307922 1092.76428223 -38.32909012
-173.70312500 -1129.89941406 41.81000137
-36.33020782 -1129.89929199 179.18283081
-172.04562378 -1235.88366699 177.52548218
-176.87507629 -767.99908447 -228.55570984
-176.87495422 730.86401367 -228.55580139
-41.15953445 624.87982178 -230.21327209
-41.15962982 -662.01483154 -230.21318054
149.82929993 -662.01452637 10.67403984
12.45636940 -662.01507568 148.04692078
12.45632744 624.87976074 148.04708862
149.82919312 624.88018799 10.67415428
-226.55706787 -767.99908447 -178.87373352
-228.21449280 -662.01495361 -43.15828323
-228.21440125 624.87988281 -43.15836716
-226.55694580 730.86401367 -178.87382507
-173.70318604 1092.76440430 41.81002426
-172.04568481 1198.74841309 177.52545166
-36.33023453 1092.76452637 179.18287659
43.80876160 -1129.89965820 179.39933777
181.18168640 -1129.89916992 42.02646255
179.52420044 -1235.88366699 177.74185181
12.45631599 -662.01531982 -144.13298035
149.82923889 -662.01531982 -6.76012516
149.82926941 624.87933350 -6.76010609
12.45637512 624.87957764 -144.13294983
184.35354614 -767.99993896 232.25315857
184.35348511 730.86322021 232.25335693
48.63805771 624.87884521 233.91081238
48.63810730 -662.01599121 233.91065979
43.80877304 1092.76416016 179.39949036
179.52418518 1198.74853516 177.74200439
181.18164063 1092.76452637 42.02655029
181.18161011 -1129.89941406 -38.11252594
43.80868912 -1129.89941406 -175.48539734
179.52407837 -1235.88354492 -173.82798767
-176.87489319 -767.99969482 232.03675842
-41.15946960 -662.01531982 233.69413757
-41.15954590 624.87951660 233.69421387
-176.87498474 730.86340332 232.03680420
-226.55691528 -767.99981689 182.35476685
-226.55697632 730.86328125 182.35481262
-228.21452332 624.87927246 46.63936996
-228.21440125 -662.01562500 46.63930511
234.03541565 -767.99896240 -178.65731812
234.03553772 730.86413574 -178.65728760
235.69297791 624.87982178 -42.94185257
235.69293213 -662.01483154 -42.94187164
181.18171692 1092.76416016 -38.11255264
179.52426147 1198.74853516 -173.82798767
43.80882645 1092.76452637 -175.48538208
184.35339355 -767.99865723 -228.33929443
48.63801193 -662.01452637 -229.99670410
48.63807297 624.88037109 -229.99667358
184.35351563 730.86444092 -228.33924866
POLYGONS 176 704
3 24 25 26
3 27 28 29
3 27 29 30
3 31 32 33
3 31 33 34
3 35 36 37
3 35 37 38
3 39 40 41
3 42 43 44
3 45 46 47
3 45 47 48
3 49 50 51
3 49 51 52
3 53 54 55
3 53 55 56
3 57 58 59
3 60 61 62
3 63 64 65
3 63 65 66
3 67 68 69
3 67 69 70
3 71 72 73
3 74 75 76
3 77 78 79
3 77 79 80
3 81 82 83
3 81 83 84
3 85 86 87
3 85 87 88
3 89 90 91
3 92 93 94
3 92 94 95
3 1 0 25
3 1 25 24
3 0 2 26
3 0 26 25
3 2 1 24
3 2 24 26
3 0 1 28
3 0 28 27
3 1 4 29
3 1 29 28
3 4 3 30
3 4 30 29
3 3 0 27
3 3 27 30
3 6 7 32
3 6 32 31
3 7 10 33
3 7 33 32
3 10 9 34
3 10 34 33
3 9 6 31
3 9 31 34
3 14 12 36
3 14 36 35
3 12 15 37
3 12 37 36
3 15 17 38
3 15 38 37
3 17 14 35
3 17 35 38
3 4 5 40
3 4 40 39
3 5 3 41
3 5 41 40
3 3 4 39
3 3 39 41
3 7 6 43
3 7 43 42
3 6 8 44
3 6 44 43
3 8 7 42
3 8 42 44
3 2 5 46
3 2 46 45
3 5 4 47
3 5 47 46
3 4 1 48
3 4 48 47
3 1 2 45
3 1 45 48
3 12 13 50
3 12 50 49
3 13 16 51
3 13 51 50
3 16 15 52
3 16 52 51
3 15 12 49
3 15 49 52
3 2 0 54
3 2 54 53
3 0 3 55
3 0 55 54
3 3 5 56
3 3 56 55
3 5 2 53
3 5 53 56
3 10 11 58
3 10 58 57
3 11 9 59
3 11 59 58
3 9 10 57
3 9 57 59
3 13 12 61
3 13 61 60
3 12 14 62
3 12 62 61
3 14 13 60
3 14 60 62
3 18 19 64
3 18 64 63
3 19 22 65
3 19 65 64
3 22 21 66
3 22 66 65
3 21 18 63
3 21 63 66
3 14 17 68
3 14 68 67
3 17 16 69
3 17 69 68
3 16 13 70
3 16 70 69
3 13 14 67
3 13 67 70
3 16 17 72
3 16 72 71
3 17 15 73
3 17 73 72
3 15 16 71
3 15 71 73
3 19 18 75
3 19 75 74
3 18 20 76
3 18 76 75
3 20 19 74
3 20 74 76
3 8 6 78
3 8 78 77
3 6 9 79
3 6 79 78
3 9 11 80
3 9 80 79
3 11 8 77
3 11 77 80
3 8 11 82
3 8 82 81
3 11 10 83
3 11 83 82
3 10 7 84
3 10 84 83
3 7 8 81
3 7 81 84
3 20 23 86
3 20 86 85
3 23 22 87
3 23 87 86
3 22 19 88
3 22 88 87
3 19 20 85
3 19 85 88
3 22 23 90
3 22 90 89
3 23 21 91
3 23 91 90
3 21 22 89
3 21 89 91
3 20 18 93
3 20 93 92
3 18 21 94
3 18 94 93
3 21 23 95
3 21 95 94
3 23 20 92
3 23 92 95
POINT_DATA 96
COLOR_SCALARS RGB 3
0.06274510 0.06274510 0.06274510
0.06274510 0.06274510 0.06274510
0.06274510 0.06274510 0.06274510
0.06274510 0.06274510 0.06274510
0.06274510 0.06274510 0.06274510
0.06274510 0.06274510 0.06274510
0.06274510 0.06274510 0.06274510
0.06274510 0.06274510 0.06274510
0.06274510 0.06274510 0.06274510
0.06274510 0.06274510 0.06274510
0.06274510 0.06274510 0.06274510
0.06274510 0.06274510 0.06274510
0.06274510 0.06274510 0.06274510
0.06274510 0.06274510 0.06274510
0.06274510 0.06274510 0.06274510
0.06274510 0.06274510 0.06274510
0.06274510 0.06274510 0.06274510
0.06274510 0.06274510 0.06274510
0.06274510 0.06274510 0.06274510
0.06274510 0.06274510 0.06274510
0.06274510 0.06274510 0.06274510
0.06274510 0.06274510 0.06274510
0.06274510 0.06274510 0.06274510
0.06274510 0.06274510 0.06274510
0.06274510 0.06274510 0.06274510
0.06274510 0.06274510 0.06274510
0.06274510 0.06274510 0.06274510
0.06274510 0.06274510 0.06274510
0.06274510 0.06274510 0.06274510
0.06274510 0.06274510 0.06274510
0.06274510 0.06274510 0.06274510
0.06274510 0.06274510 0.06274510
0.06274510 0.06274510 0.06274510
0.06274510 0.06274510 0.06274510
0.06274510 0.06274510 0.06274510
0.06274510 0.06274510 0.06274510
0.06274510 0.06274510 0.06274510
0.06274510 0.06274510 0.06274510
0.06274510 0.06274510 0.06274510
0.06274510 0.06274510 0.06274510
0.06274510 0.06274510 0.06274510
0.06274510 0.06274510 0.06274510
0.06274510 0.06274510 0.06274510
0.06274510 0.06274510 0.06274510
0.06274510 0.06274510 0.06274510
0.06274510 0.06274510 0.06274510
0.06274510 0.06274510 0.06274510
0.06274510 0.06274510 0.06274510
0.06274510 0.06274510 0.06274510
0.06274510 0.06274510 0.06274510
0.06274510 0.06274510 0.06274510
0.06274510 0.06274510 0.06274510
0.06274510 0.06274510 0.06274510
0.06274510 0.06274510 0.06274510
0.06274510 0.06274510 0.06274510
0.06274510 0.06274510 0.06274510
0.06274510 0.06274510 0.06274510
0.06274510 0.06274510 0.06274510
0.06274510 0.06274510 0.06274510
0.06274510 0.06274510 0.06274510
0.06274510 0.06274510 0.06274510
0.06274510 0.06274510 0.06274510
0.06274510 0.06274510 0.06274510
0.06274510 0.06274510 0.06274510
0.06274510 0.06274510 0.06274510
0.06274510 0.06274510 0.06274510
0.06274510 0.06274510 0.06274510
0.06274510 0.06274510 0.06274510
0.06274510 0.06274510 0.06274510
0.06274510 0.06274510 0.06274510
0.06274510 0.06274510 0.06274510
0.06274510 0.06274510 0.06274510
0.06274510 0.06274510 0.06274510
0.06274510 0.06274510 0.06274510
0.06274510 0.06274510 0.06274510
0.06274510 0.06274510 0.06274510
0.06274510 0.06274510 0.06274510
0.06274510 0.06274510 0.06274510
0.06274510 0.06274510 0.06274510
0.06274510 0.06274510 0.06274510
0.06274510 0.06274510 0.06274510
0.06274510 0.06274510 0.06274510
0.06274510 0.06274510 0.06274510
0.06274510 0.06274510 0.06274510
0.06274510 0.06274510 0.06274510
0.06274510 0.06274510 0.06274510
0.06274510 0.06274510 0.06274510
0.06274510 0.06274510 0.06274510
0.06274510 0.06274510 0.06274510
0.06274510 0.06274510 0.06274510
0.06274510 0.06274510 0.06274510
0.06274510 0.06274510 0.06274510
0.06274510 0.06274510 0.06274510
0.06274510 0.06274510 0.06274510
0.06274510 0.06274510 0.06274510
0.06274510 0.06274510 0.06274510
